
#=======================================================================
data_global
#=======================================================================

_audit_creation_method                   'Jana2020 1.3.9'


# 1. PROCESSING SUMMARY (IUCr Office Use Only)

_journal_date_recd_electronic            ?
_journal_date_to_coeditor                ?
_journal_date_from_coeditor              ?
_journal_date_accepted                   ?
_journal_date_printers_first             ?
_journal_date_printers_final             ?
_journal_date_proofs_out                 ?
_journal_date_proofs_in                  ?
_journal_coeditor_name                   ?
_journal_coeditor_code                   ?
_journal_coeditor_notes
; ?
;
_journal_techeditor_code                 ?
_journal_paper_category                  ?
_journal_techeditor_notes
; ?
;
_journal_coden_ASTM                      ?
_journal_name_full                       'Acta Crystallographica Section C'
_journal_year                            ?
_journal_volume                          ?
_journal_issue                           ?
_journal_page_first                      ?
_journal_page_last                       ?
_journal_suppl_publ_number               ?
_journal_suppl_publ_pages                ?

#=======================================================================

# 2. SUBMISSION DETAILS

_publ_contact_author_name                ?
_publ_contact_author_address
; ?
;
_publ_contact_author_email               ?
_publ_contact_author_fax                 ?
_publ_contact_author_phone               ?

_publ_requested_journal                  'Acta Crystallographica Section C'
_publ_requested_category                 ?

_publ_contact_letter
; ?
;

#=======================================================================

# 3. TITLE AND AUTHOR LIST

_publ_section_title
; ?
;
_publ_section_title_footnote
; ?
;
loop_
 _publ_author_name
 _publ_author_footnote
 _publ_author_address
; ?      # name
;
; ?      # footnote
;
; ?      # address
;

#=======================================================================

# 4. TEXT

_publ_section_synopsis
; ?
;
_publ_section_abstract
; ?
;
_publ_section_comment
; ?
;
_publ_section_introduction
; ?
;
_publ_section_experimental
; ?
;
_publ_section_exptl_prep
; ?
;
_publ_section_exptl_refinement
; ?
;
_publ_section_exptl_solution
; ?
;
_publ_section_discussion
; ?
;
_publ_section_acknowledgements
; ?
;
_publ_section_references
;
;
_publ_section_figure_captions
; ?
;
_publ_section_table_legends
; ?
;

#=======================================================================
data_I
#=======================================================================

# 5. CHEMICAL DATA

_chemical_name_systematic
; ?
;
_chemical_name_common                    ?
_chemical_formula_moiety                 ?
_chemical_formula_structural             ?
_chemical_formula_analytical             ?
_chemical_formula_iupac                  ?
_chemical_formula_sum                    'Fe1.146 Mn0.854 O3'
_chemical_formula_weight                 158.9
_chemical_melting_point                  ?
_chemical_compound_source                ?
_chemical_absolute_configuration         .

#=======================================================================

# 6. CRYSTAL DATA

_symmetry_cell_setting                   cubic
_symmetry_space_group_name_H-M           'I a -3'
_symmetry_space_group_name_Hall          '-I 2ac;2ab;3'
_symmetry_Int_Tables_number              206

loop_
 _space_group_symop_id
 _space_group_symop_operation_xyz
 1   x,y,z
 2   -x,-y+1/2,z
 3   -x,y+1/2,-z+1/2
 4   x,-y,-z+1/2
 5   z,x,y
 6   z,-x,-y+1/2
 7   -z,-x+1/2,y
 8   -z,x+1/2,-y+1/2
 9   y,z,x
 10  -y,z+1/2,-x+1/2
 11  y,-z,-x+1/2
 12  -y,-z+1/2,x
 13  -x,-y,-z
 14  x,y+1/2,-z
 15  x,-y+1/2,z+1/2
 16  -x,y,z+1/2
 17  -z,-x,-y
 18  -z,x,y+1/2
 19  z,x+1/2,-y
 20  z,-x+1/2,y+1/2
 21  -y,-z,-x
 22  y,-z+1/2,x+1/2
 23  -y,z,x+1/2
 24  y,z+1/2,-x
 25  x+1/2,y+1/2,z+1/2
 26  -x+1/2,-y,z+1/2
 27  -x+1/2,y,-z
 28  x+1/2,-y+1/2,-z
 29  z+1/2,x+1/2,y+1/2
 30  z+1/2,-x+1/2,-y
 31  -z+1/2,-x,y+1/2
 32  -z+1/2,x,-y
 33  y+1/2,z+1/2,x+1/2
 34  -y+1/2,z,-x
 35  y+1/2,-z+1/2,-x
 36  -y+1/2,-z,x+1/2
 37  -x+1/2,-y+1/2,-z+1/2
 38  x+1/2,y,-z+1/2
 39  x+1/2,-y,z
 40  -x+1/2,y+1/2,z
 41  -z+1/2,-x+1/2,-y+1/2
 42  -z+1/2,x+1/2,y
 43  z+1/2,x,-y+1/2
 44  z+1/2,-x,y
 45  -y+1/2,-z+1/2,-x+1/2
 46  y+1/2,-z,x
 47  -y+1/2,z+1/2,x
 48  y+1/2,z,-x+1/2

_cell_length_a                           9.4083
_cell_length_b                           9.4083
_cell_length_c                           9.4083
_cell_angle_alpha                        90
_cell_angle_beta                         90
_cell_angle_gamma                        90
_cell_volume                             832.7862

loop_
 _twin_individual_id
 _twin_individual_mass_fraction_refined
 _twin_individual_twin_matrix_11
 _twin_individual_twin_matrix_12
 _twin_individual_twin_matrix_13
 _twin_individual_twin_matrix_21
 _twin_individual_twin_matrix_22
 _twin_individual_twin_matrix_23
 _twin_individual_twin_matrix_31
 _twin_individual_twin_matrix_32
 _twin_individual_twin_matrix_33
1 0.8055(8)
1 0 0
0 1 0
0 0 1
2 0.1945(8)
0 -1 0
-1 0 0
0 0 -1

_cell_formula_units_Z                    16

_cell_measurement_reflns_used            ?
_cell_measurement_theta_min              ?
_cell_measurement_theta_max              ?
_cell_measurement_temperature            293
_cell_special_details
; ?
;

_exptl_crystal_density_diffrn            5.0699
_exptl_crystal_density_meas              ?
_exptl_crystal_density_method            ?
_exptl_crystal_F_000                     400.812

_exptl_absorpt_coefficient_mu            0
_exptl_crystal_description               ?
_exptl_crystal_size_max                  ?
_exptl_crystal_size_mid                  ?
_exptl_crystal_size_min                  ?
_exptl_crystal_size_rad                  ?
_exptl_crystal_colour                    ?
_exptl_absorpt_correction_type           ?
_exptl_absorpt_process_details           ?
_exptl_absorpt_correction_T_min          ?
_exptl_absorpt_correction_T_max          ?
loop_
 _exptl_crystal_face_index_h
 _exptl_crystal_face_index_k
 _exptl_crystal_face_index_l
 _exptl_crystal_face_perp_dist
 ? ? ? ?

#=======================================================================

# 7. EXPERIMENTAL DATA

_exptl_special_details                   ?

_diffrn_ambient_temperature              293
_diffrn_source                           ?
_diffrn_source_power                     ?
_diffrn_source_voltage                   ?
_diffrn_source_current                   ?
_diffrn_radiation_type                   neutron
_diffrn_radiation_source                 'The ORNL Spallation Neutron Source'
_diffrn_radiation_wavelength             0.4016-3.4925
_diffrn_radiation_monochromator          ?
_diffrn_measurement_device               ?
_diffrn_measurement_device_type          'TOPAZ'
_diffrn_detector                         ?
_diffrn_detector_area_resol_mean         ?
_diffrn_measurement_method               'time-of-flight LAUE'
_diffrn_measurement_specimen_support     ?

_diffrn_reflns_number                    5671
_diffrn_reflns_theta_min                 5.81
_diffrn_reflns_theta_max                 72.31
_diffrn_reflns_theta_full                31.42
_diffrn_measured_fraction_theta_max      0.88
_diffrn_measured_fraction_theta_full     0.98
_diffrn_reflns_av_R_equivalents          ?
_diffrn_reflns_av_unetI/netI             0.0364
_diffrn_reflns_limit_h_min               -18
_diffrn_reflns_limit_h_max               18
_diffrn_reflns_limit_k_min               -17
_diffrn_reflns_limit_k_max               18
_diffrn_reflns_limit_l_min               -18
_diffrn_reflns_limit_l_max               8
_diffrn_reflns_reduction_process         ?

_diffrn_standards_number                 ?
_diffrn_standards_interval_count         ?
_diffrn_standards_interval_time          ?
_diffrn_standards_decay_%                ?
loop_
_diffrn_standard_refln_index_h
_diffrn_standard_refln_index_k
_diffrn_standard_refln_index_l
  ? ? ?

_diffrn_radiation_probe                  neutron

#=======================================================================

# 8. REFINEMENT DATA

_refine_special_details
; ?
;

_reflns_number_total                     5394
_reflns_number_gt                        5394
_reflns_threshold_expression             'I>3\s(I)'

_refine_ls_structure_factor_coef         Fsqd
_refine_ls_R_factor_gt                   0.0352
_refine_ls_wR_factor_gt                  0.0967
_refine_ls_R_factor_all                  0.0352
_refine_ls_wR_factor_ref                 0.0967
_refine_ls_goodness_of_fit_ref           2.2449
_refine_ls_goodness_of_fit_gt            2.2449
_refine_ls_restrained_S_gt               ?
_refine_ls_restrained_S_all              ?
_refine_ls_number_reflns                 5394
_refine_ls_number_parameters             30
_refine_ls_number_restraints             0
_refine_ls_number_constraints            7
_refine_ls_weighting_scheme              sigma
_refine_ls_weighting_details             'w=1/(\s^2^(I)+0.0004I^2^)'
_refine_ls_hydrogen_treatment            ?
_refine_ls_shift/su_max                  0.0197
_refine_ls_shift/su_mean                 0.0031
_refine_diff_density_max                 ?
_refine_diff_density_min                 ?
_refine_ls_extinction_method
 'B-C type 1 Lorentzian isotropic (Becker & Coppens, 1974)'
_refine_ls_extinction_coef               80.4(14)
_refine_ls_extinction_expression         ?
_refine_ls_abs_structure_details         ?
_refine_ls_abs_structure_Flack           ?
_refine_ls_abs_structure_Rogers          ?

loop_
 _atom_type_symbol
 _atom_type_scat_length_neutron
 _atom_type_scat_source
 Fe    9.450 International_Tables_Vol_C
 Mn   -3.730 International_Tables_Vol_C
 O     5.803 International_Tables_Vol_C

_computing_data_collection               ?
_computing_cell_refinement               ?
_computing_data_reduction                ?
_computing_structure_solution            ?
_computing_structure_refinement          ?
_computing_molecular_graphics            ?
_computing_publication_material          ?

loop_
 _restr_distance_atom_site_label_1
 _restr_distance_site_symmetry_1
 _restr_distance_atom_site_label_2
 _restr_distance_site_symmetry_2
 _restr_distance_target
 _restr_distance_target_weight_param
 ? ? ? ? ? ?

loop_
 _restr_angle_atom_site_label_1
 _restr_angle_site_symmetry_1
 _restr_angle_atom_site_label_2
 _restr_angle_site_symmetry_2
 _restr_angle_atom_site_label_3
 _restr_angle_site_symmetry_3
 _restr_angle_target
 _restr_angle_target_weight_param
 ? ? ? ? ? ? ? ?

loop_
 _restr_torsion_atom_site_label_1
 _restr_torsion_site_symmetry_1
 _restr_torsion_atom_site_label_2
 _restr_torsion_site_symmetry_2
 _restr_torsion_atom_site_label_3
 _restr_torsion_site_symmetry_3
 _restr_torsion_atom_site_label_4
 _restr_torsion_site_symmetry_4
 _restr_torsion_angle_target
 _restr_torsion_weight_param
 ? ? ? ? ? ? ? ? ? ?

loop_
 _restr_equal_distance_atom_site_label_1
 _restr_equal_distance_site_symmetry_1
 _restr_equal_distance_atom_site_label_2
 _restr_equal_distance_site_symmetry_2
 _restr_equal_distance_class_class_id
 _restr_equal_distance_class_target_weight_param
 ? ? ? ? ? ?

loop_
 _restr_equal_angle_atom_site_label_1
 _restr_equal_angle_site_symmetry_1
 _restr_equal_angle_atom_site_label_2
 _restr_equal_angle_site_symmetry_2
 _restr_equal_angle_atom_site_label_3
 _restr_equal_angle_site_symmetry_3
 _restr_equal_angle_class_class_id
 _restr_equal_angle_class_target_weight_param
 ? ? ? ? ? ? ? ?

loop_
 _restr_equal_torsion_atom_site_label_1
 _restr_equal_torsion_site_symmetry_1
 _restr_equal_torsion_atom_site_label_2
 _restr_equal_torsion_site_symmetry_2
 _restr_equal_torsion_atom_site_label_3
 _restr_equal_torsion_site_symmetry_3
 _restr_equal_torsion_atom_site_label_4
 _restr_equal_torsion_site_symmetry_4
 _restr_equal_torsion_class_class_id
 _restr_equal_torsion_class_target_weight_param
 ? ? ? ? ? ? ? ? ? ?


#=======================================================================

# 9. ATOMIC COORDINATES AND DISPLACEMENT PARAMETERS

loop_
 _atom_site_label
 _atom_site_type_symbol
 _atom_site_fract_x
 _atom_site_fract_y
 _atom_site_fract_z
 _atom_site_adp_type
 _atom_site_U_iso_or_equiv
 _atom_site_site_symmetry_multiplicity
 _atom_site_occupancy
 _atom_site_calc_flag
 _atom_site_refinement_flags
 _atom_site_disorder_assembly
 _atom_site_disorder_group
  Fe1 Fe 0 0 0 Uani 0.00636(5) 8 0.7688(19) d . . .
  Mn1 Mn 0 0 0 Uani 0.00636(5) 8 0.2312(19) d . . .
  O1 O -0.08795(2) 0.13528(2) 0.13974(2) Uani 0.01090(4) 48 1 d . . .
  Mn2 Mn 0 0.25 0.29128(4) Uani 0.00473(9) 24 0.4924(9) d . . .
  Fe2 Fe 0 0.25 0.29128(4) Uani 0.00473(9) 24 0.5076(9) d . . .

loop_
 _atom_site_aniso_label
 _atom_site_aniso_type_symbol
 _atom_site_aniso_U_11
 _atom_site_aniso_U_22
 _atom_site_aniso_U_33
 _atom_site_aniso_U_12
 _atom_site_aniso_U_13
 _atom_site_aniso_U_23
 Fe1 Fe 0.00636(9) 0.00636(9) 0.00636(9) 0.00000(5) 0.00000(5) 0.00000(5)
 Mn1 Mn 0.00636(9) 0.00636(9) 0.00636(9) 0.00000(5) 0.00000(5) 0.00000(5)
 O1 O 0.01173(7) 0.01149(7) 0.00948(7) -0.00287(5) 0.00091(5) -0.00286(5)
 Mn2 Mn 0.00537(16) 0.00558(14) 0.00325(14) 0.00013(9) 0 0
 Fe2 Fe 0.00537(16) 0.00558(14) 0.00325(14) 0.00013(9) 0 0

loop_
 _jana_atom_site_ADP_C_label
 _jana_atom_site_ADP_C_type_symbol
 _jana_atom_site_ADP_C_111
 _jana_atom_site_ADP_C_112
 _jana_atom_site_ADP_C_113
 _jana_atom_site_ADP_C_122
 _jana_atom_site_ADP_C_123
 _jana_atom_site_ADP_C_133
 _jana_atom_site_ADP_C_222
 _jana_atom_site_ADP_C_223
 _jana_atom_site_ADP_C_233
 _jana_atom_site_ADP_C_333
 ? ? ? ? ? ? ? ? ? ? ? ?

loop_
 _jana_atom_site_ADP_D_label
 _jana_atom_site_ADP_D_type_symbol
 _jana_atom_site_ADP_D_1111
 _jana_atom_site_ADP_D_1112
 _jana_atom_site_ADP_D_1113
 _jana_atom_site_ADP_D_1122
 _jana_atom_site_ADP_D_1123
 _jana_atom_site_ADP_D_1133
 _jana_atom_site_ADP_D_1222
 _jana_atom_site_ADP_D_1223
 _jana_atom_site_ADP_D_1233
 _jana_atom_site_ADP_D_1333
 _jana_atom_site_ADP_D_2222
 _jana_atom_site_ADP_D_2223
 _jana_atom_site_ADP_D_2233
 _jana_atom_site_ADP_D_2333
 _jana_atom_site_ADP_D_3333
 ? ? ? ? ? ? ? ? ? ? ? ? ? ? ? ? ?

loop_
 _jana_atom_site_ADP_E_label
 _jana_atom_site_ADP_E_type_symbol
 _jana_atom_site_ADP_E_11111
 _jana_atom_site_ADP_E_11112
 _jana_atom_site_ADP_E_11113
 _jana_atom_site_ADP_E_11122
 _jana_atom_site_ADP_E_11123
 _jana_atom_site_ADP_E_11133
 _jana_atom_site_ADP_E_11222
 _jana_atom_site_ADP_E_11223
 _jana_atom_site_ADP_E_11233
 _jana_atom_site_ADP_E_11333
 _jana_atom_site_ADP_E_12222
 _jana_atom_site_ADP_E_12223
 _jana_atom_site_ADP_E_12233
 _jana_atom_site_ADP_E_12333
 _jana_atom_site_ADP_E_13333
 _jana_atom_site_ADP_E_22222
 _jana_atom_site_ADP_E_22223
 _jana_atom_site_ADP_E_22233
 _jana_atom_site_ADP_E_22333
 _jana_atom_site_ADP_E_23333
 _jana_atom_site_ADP_E_33333
 ? ? ? ? ? ? ? ? ? ? ? ? ? ? ? ? ? ? ? ? ? ? ?

loop_
 _jana_atom_site_ADP_F_label
 _jana_atom_site_ADP_F_type_symbol
 _jana_atom_site_ADP_F_111111
 _jana_atom_site_ADP_F_111112
 _jana_atom_site_ADP_F_111113
 _jana_atom_site_ADP_F_111122
 _jana_atom_site_ADP_F_111123
 _jana_atom_site_ADP_F_111133
 _jana_atom_site_ADP_F_111222
 _jana_atom_site_ADP_F_111223
 _jana_atom_site_ADP_F_111233
 _jana_atom_site_ADP_F_111333
 _jana_atom_site_ADP_F_112222
 _jana_atom_site_ADP_F_112223
 _jana_atom_site_ADP_F_112233
 _jana_atom_site_ADP_F_112333
 _jana_atom_site_ADP_F_113333
 _jana_atom_site_ADP_F_122222
 _jana_atom_site_ADP_F_122223
 _jana_atom_site_ADP_F_122233
 _jana_atom_site_ADP_F_122333
 _jana_atom_site_ADP_F_123333
 _jana_atom_site_ADP_F_133333
 _jana_atom_site_ADP_F_222222
 _jana_atom_site_ADP_F_222223
 _jana_atom_site_ADP_F_222233
 _jana_atom_site_ADP_F_222333
 _jana_atom_site_ADP_F_223333
 _jana_atom_site_ADP_F_233333
 _jana_atom_site_ADP_F_333333
 ? ? ? ? ? ? ? ? ? ? ? ? ? ? ? ? ? ? ? ? ? ? ? ? ? ? ? ? ? ?


#=======================================================================

# 10. MOLECULAR GEOMETRY


loop_
 _geom_bond_atom_site_label_1
 _geom_bond_atom_site_label_2
 _geom_bond_site_symmetry_1
 _geom_bond_site_symmetry_2
 _geom_bond_distance
 _geom_bond_publ_flag
 ? ? ? ? ? ?

loop_
 _geom_angle_atom_site_label_1
 _geom_angle_atom_site_label_2
 _geom_angle_atom_site_label_3
 _geom_angle_site_symmetry_1
 _geom_angle_site_symmetry_2
 _geom_angle_site_symmetry_3
 _geom_angle
 _geom_angle_publ_flag
 ? ? ? ? ? ? ? ?

loop_
 _geom_torsion_atom_site_label_1
 _geom_torsion_atom_site_label_2
 _geom_torsion_atom_site_label_3
 _geom_torsion_atom_site_label_4
 _geom_torsion_site_symmetry_1
 _geom_torsion_site_symmetry_2
 _geom_torsion_site_symmetry_3
 _geom_torsion_site_symmetry_4
 _geom_torsion
 _geom_torsion_publ_flag
 ? ? ? ? ? ? ? ? ? ?

loop_
 _geom_hbond_atom_site_label_D
 _geom_hbond_atom_site_label_H
 _geom_hbond_atom_site_label_A
 _geom_hbond_site_symmetry_D
 _geom_hbond_site_symmetry_H
 _geom_hbond_site_symmetry_A
 _geom_hbond_distance_DH
 _geom_hbond_distance_HA
 _geom_hbond_distance_DA
 _geom_hbond_angle_DHA
 _geom_hbond_publ_flag
 ? ? ? ? ? ? ? ? ? ? ?
